MODEL 1
REMARK VINA RESULT:    -3.304      0.000      0.000
REMARK INTER + INTRA:          -4.335
REMARK INTER:                  -4.270
REMARK INTRA:                  -0.065
REMARK UNBOUND:                -0.065
REMARK SMILES NCCCCC(=O)O
REMARK SMILES IDX 4 1 3 2 2 3 1 4 5 7 6 8 7 9 8 10
REMARK H PARENT 1 5 1 6 8 11
ROOT
ATOM      1  C   UNL     1      40.624  51.885  62.449  1.00  0.00     0.013 C 
ENDROOT
BRANCH   1   2
ATOM      2  C   UNL     1      41.612  52.486  63.450  1.00  0.00     0.016 C 
BRANCH   2   3
ATOM      3  C   UNL     1      42.763  53.193  62.735  1.00  0.00     0.077 C 
BRANCH   3   4
ATOM      4  N   UNL     1      43.270  54.286  63.555  1.00  0.00    -0.330 NA
ATOM      5  H   UNL     1      43.576  53.926  64.458  1.00  0.00     0.118 HD
ATOM      6  H   UNL     1      42.513  54.941  63.751  1.00  0.00     0.118 HD
ENDBRANCH   3   4
ENDBRANCH   2   3
ENDBRANCH   1   2
BRANCH   1   7
ATOM      7  C   UNL     1      39.281  51.588  63.105  1.00  0.00     0.122 C 
BRANCH   7   8
ATOM      8  C   UNL     1      38.270  52.637  62.746  1.00  0.00     0.303 C 
ATOM      9  O   UNL     1      38.373  53.467  61.860  1.00  0.00    -0.252 OA
BRANCH   8  10
ATOM     10  O   UNL     1      37.183  52.606  63.539  1.00  0.00    -0.481 OA
ATOM     11  H   UNL     1      36.455  52.349  62.935  1.00  0.00     0.296 HD
ENDBRANCH   8  10
ENDBRANCH   7   8
ENDBRANCH   1   7
TORSDOF 6
ENDMDL
MODEL 2
REMARK VINA RESULT:    -3.283      9.889     10.935
REMARK INTER + INTRA:          -4.307
REMARK INTER:                  -4.273
REMARK INTRA:                  -0.033
REMARK UNBOUND:                -0.065
REMARK SMILES NCCCCC(=O)O
REMARK SMILES IDX 4 1 3 2 2 3 1 4 5 7 6 8 7 9 8 10
REMARK H PARENT 1 5 1 6 8 11
ROOT
ATOM      1  C   UNL     1      35.425  55.881  54.740  1.00  0.00     0.013 C 
ENDROOT
BRANCH   1   2
ATOM      2  C   UNL     1      34.677  56.089  53.423  1.00  0.00     0.016 C 
BRANCH   2   3
ATOM      3  C   UNL     1      33.292  55.444  53.465  1.00  0.00     0.077 C 
BRANCH   3   4
ATOM      4  N   UNL     1      32.395  56.117  52.533  1.00  0.00    -0.330 NA
ATOM      5  H   UNL     1      32.709  57.075  52.384  1.00  0.00     0.118 HD
ATOM      6  H   UNL     1      31.466  56.183  52.948  1.00  0.00     0.118 HD
ENDBRANCH   3   4
ENDBRANCH   2   3
ENDBRANCH   1   2
BRANCH   1   7
ATOM      7  C   UNL     1      36.101  57.166  55.203  1.00  0.00     0.122 C 
BRANCH   7   8
ATOM      8  C   UNL     1      36.230  57.190  56.698  1.00  0.00     0.303 C 
ATOM      9  O   UNL     1      36.962  56.485  57.372  1.00  0.00    -0.252 OA
BRANCH   8  10
ATOM     10  O   UNL     1      35.411  58.086  57.278  1.00  0.00    -0.481 OA
ATOM     11  H   UNL     1      34.961  57.576  57.984  1.00  0.00     0.296 HD
ENDBRANCH   8  10
ENDBRANCH   7   8
ENDBRANCH   1   7
TORSDOF 6
ENDMDL
MODEL 3
REMARK VINA RESULT:    -3.256     11.463     12.038
REMARK INTER + INTRA:          -4.272
REMARK INTER:                  -3.876
REMARK INTRA:                  -0.396
REMARK UNBOUND:                -0.065
REMARK SMILES NCCCCC(=O)O
REMARK SMILES IDX 4 1 3 2 2 3 1 4 5 7 6 8 7 9 8 10
REMARK H PARENT 1 5 1 6 8 11
ROOT
ATOM      1  C   UNL     1      34.346  54.177  54.386  1.00  0.00     0.013 C 
ENDROOT
BRANCH   1   2
ATOM      2  C   UNL     1      33.936  55.649  54.444  1.00  0.00     0.016 C 
BRANCH   2   3
ATOM      3  C   UNL     1      33.951  56.283  53.054  1.00  0.00     0.077 C 
BRANCH   3   4
ATOM      4  N   UNL     1      32.637  56.170  52.434  1.00  0.00    -0.330 NA
ATOM      5  H   UNL     1      32.191  57.086  52.404  1.00  0.00     0.118 HD
ATOM      6  H   UNL     1      32.040  55.581  53.013  1.00  0.00     0.118 HD
ENDBRANCH   3   4
ENDBRANCH   2   3
ENDBRANCH   1   2
BRANCH   1   7
ATOM      7  C   UNL     1      33.162  53.260  54.667  1.00  0.00     0.122 C 
BRANCH   7   8
ATOM      8  C   UNL     1      32.867  52.393  53.478  1.00  0.00     0.303 C 
ATOM      9  O   UNL     1      33.033  51.187  53.404  1.00  0.00    -0.252 OA
BRANCH   8  10
ATOM     10  O   UNL     1      32.398  53.091  52.428  1.00  0.00    -0.481 OA
ATOM     11  H   UNL     1      33.081  52.966  51.736  1.00  0.00     0.296 HD
ENDBRANCH   8  10
ENDBRANCH   7   8
ENDBRANCH   1   7
TORSDOF 6
ENDMDL
MODEL 4
REMARK VINA RESULT:    -3.235     10.120     10.966
REMARK INTER + INTRA:          -4.245
REMARK INTER:                  -4.203
REMARK INTRA:                  -0.042
REMARK UNBOUND:                -0.065
REMARK SMILES NCCCCC(=O)O
REMARK SMILES IDX 4 1 3 2 2 3 1 4 5 7 6 8 7 9 8 10
REMARK H PARENT 1 5 1 6 8 11
ROOT
ATOM      1  C   UNL     1      34.895  56.112  54.832  1.00  0.00     0.013 C 
ENDROOT
BRANCH   1   2
ATOM      2  C   UNL     1      36.183  56.911  55.028  1.00  0.00     0.016 C 
BRANCH   2   3
ATOM      3  C   UNL     1      36.471  57.143  56.510  1.00  0.00     0.077 C 
BRANCH   3   4
ATOM      4  N   UNL     1      35.348  57.824  57.142  1.00  0.00    -0.330 NA
ATOM      5  H   UNL     1      35.687  58.616  57.685  1.00  0.00     0.118 HD
ATOM      6  H   UNL     1      34.901  57.193  57.806  1.00  0.00     0.118 HD
ENDBRANCH   3   4
ENDBRANCH   2   3
ENDBRANCH   1   2
BRANCH   1   7
ATOM      7  C   UNL     1      34.423  56.163  53.384  1.00  0.00     0.122 C 
BRANCH   7   8
ATOM      8  C   UNL     1      33.099  55.474  53.230  1.00  0.00     0.303 C 
ATOM      9  O   UNL     1      32.770  54.418  53.743  1.00  0.00    -0.252 OA
BRANCH   8  10
ATOM     10  O   UNL     1      32.258  56.137  52.416  1.00  0.00    -0.481 OA
ATOM     11  H   UNL     1      31.502  55.523  52.304  1.00  0.00     0.296 HD
ENDBRANCH   8  10
ENDBRANCH   7   8
ENDBRANCH   1   7
TORSDOF 6
ENDMDL
MODEL 5
REMARK VINA RESULT:    -2.955      4.015      5.185
REMARK INTER + INTRA:          -3.883
REMARK INTER:                  -3.527
REMARK INTRA:                  -0.356
REMARK UNBOUND:                -0.065
REMARK SMILES NCCCCC(=O)O
REMARK SMILES IDX 4 1 3 2 2 3 1 4 5 7 6 8 7 9 8 10
REMARK H PARENT 1 5 1 6 8 11
ROOT
ATOM      1  C   UNL     1      35.589  50.880  62.380  1.00  0.00     0.013 C 
ENDROOT
BRANCH   1   2
ATOM      2  C   UNL     1      37.016  50.835  61.833  1.00  0.00     0.016 C 
BRANCH   2   3
ATOM      3  C   UNL     1      37.911  51.853  62.537  1.00  0.00     0.077 C 
BRANCH   3   4
ATOM      4  N   UNL     1      37.140  52.613  63.513  1.00  0.00    -0.330 NA
ATOM      5  H   UNL     1      36.806  51.990  64.248  1.00  0.00     0.118 HD
ATOM      6  H   UNL     1      36.309  52.995  63.063  1.00  0.00     0.118 HD
ENDBRANCH   3   4
ENDBRANCH   2   3
ENDBRANCH   1   2
BRANCH   1   7
ATOM      7  C   UNL     1      35.210  49.564  63.050  1.00  0.00     0.122 C 
BRANCH   7   8
ATOM      8  C   UNL     1      35.093  49.738  64.536  1.00  0.00     0.303 C 
ATOM      9  O   UNL     1      34.062  49.723  65.187  1.00  0.00    -0.252 OA
BRANCH   8  10
ATOM     10  O   UNL     1      36.282  49.948  65.131  1.00  0.00    -0.481 OA
ATOM     11  H   UNL     1      36.937  49.661  64.461  1.00  0.00     0.296 HD
ENDBRANCH   8  10
ENDBRANCH   7   8
ENDBRANCH   1   7
TORSDOF 6
ENDMDL
